6
Lattice="4.565092724 0.0 0.0 0.0 4.565092724 0.0 0.0 0.0 2.928419991" Properties=species:S:1:pos:R:3:forces:R:3 energy=-58.63752602 stress="0.006489003687251907 0.0001739258933018629 0.0015638475605448056 0.0001739258933018629 0.007160196854122014 0.000189798051008984 0.0015638475605448056 0.000189798051008984 0.007267962750689516" free_energy=-58.63752602 pbc="T T T"
Ti       2.28462000       2.27497000       1.47315000      -0.06147700       0.16206600      -0.01156900
Ti       4.56102000       0.00422000       0.00403000       0.09268700      -0.16891900       0.00198100
O        0.89090000       3.66882000       1.47157000      -0.04304700       0.04690600      -0.05123200
O        3.66595000       0.90317000       1.46461000       0.05315700      -0.07633600       0.03429800
O        1.38647000       1.38209000       2.92600000       0.00714400       0.04147700       0.06796500
O        3.17693000       3.17846000       0.00631000      -0.04846300      -0.00519300      -0.04144300
6
Lattice="4.565092724 0.0 0.0 0.0 4.565092724 0.0 0.0 0.0 2.928419991" Properties=species:S:1:pos:R:3:forces:R:3 energy=-58.63679477 stress="0.006878143056723351 -0.0005666229229750598 0.00022277818523015115 -0.0005666229229750598 0.007120369784389753 0.0022447088250509067 0.00022277818523015115 0.0022447088250509067 0.007500508897701673" free_energy=-58.63679477 pbc="T T T"
Ti       2.28220000       2.28349000       1.45717000      -0.06790400      -0.07826800       0.01821500
Ti       4.55951000       4.56141000       0.00947000       0.04439200       0.08296900      -0.02335000
O        0.89059000       3.67239000       1.45866000       0.05021300      -0.05161000       0.08542000
O        3.66383000       0.89744000       1.46835000       0.00226400       0.03452300      -0.03811800
O        1.38296000       1.38337000       2.92450000       0.11443500       0.15716400       0.05729100
O        3.17973000       3.18639000       0.00887000      -0.14340000      -0.14477900      -0.09945800
6
Lattice="4.565092724 0.0 0.0 0.0 4.565092724 0.0 0.0 0.0 2.928419991" Properties=species:S:1:pos:R:3:forces:R:3 energy=-58.63382537 stress="0.006672422915934238 -0.0009915136567195627 -0.0015571316967253554 -0.0009915136567195627 0.006321025952147011 0.0007025068181546642 -0.0015571316967253554 0.0007025068181546642 0.006602717742016375" free_energy=-58.63382537 pbc="T T T"
Ti       2.28767000       2.28861000       1.46730000      -0.09247800      -0.18887600      -0.00868000
Ti       0.00330000       4.56054000       0.00801000       0.03851200       0.15185400      -0.00383800
O        0.90379000       3.67543000       1.46250000       0.09549900      -0.18770700       0.03302300
O        3.67964000       0.88847000       1.47331000      -0.17388600       0.14443400      -0.10551100
O        1.38203000       1.37829000       2.92368000       0.25289400       0.25246800       0.02047300
O        3.18389000       3.18013000       2.92068000      -0.12054100      -0.17217300       0.06453300
6
Lattice="4.565092724 0.0 0.0 0.0 4.565092724 0.0 0.0 0.0 2.928419991" Properties=species:S:1:pos:R:3:forces:R:3 energy=-58.63653056 stress="0.005332726672627278 -0.00039720339926208466 0.0013854277806723068 -0.00039720339926208466 0.006149384451185221 -0.00013932920821709197 0.0013854277806723068 -0.00013932920821709197 0.005523448466986893" free_energy=-58.63653056 pbc="T T T"
Ti       2.29164000       2.27345000       1.46799000       0.05168500       0.13426100      -0.00259800
Ti       0.00795000       0.00057000       0.00125000      -0.04139800      -0.08406500       0.00903200
O        0.88892000       3.67848000       1.47279000       0.18596300      -0.15356100      -0.05358500
O        3.67900000       0.90414000       1.46564000      -0.11328100       0.07690000       0.03943700
O        1.39292000       1.38596000       0.00110000       0.07527600       0.10827100       0.04370700
O        3.18592000       3.18379000       0.00763000      -0.15824500      -0.08180800      -0.03599400
6
Lattice="4.565092724 0.0 0.0 0.0 4.565092724 0.0 0.0 0.0 2.928419991" Properties=species:S:1:pos:R:3:forces:R:3 energy=-58.6370131 stress="0.007526604647356991 0.00047711968210989393 -0.00031831072391092034 0.00047711968210989393 0.007179096143755189 0.00020369165032320012 -0.00031831072391092034 0.00020369165032320012 0.00803760324100218" free_energy=-58.6370131 pbc="T T T"
Ti       2.27360000       2.29223000       1.46747000       0.11911900      -0.13060000      -0.00260300
Ti       4.56466000       4.56466000       0.00993000      -0.14368700       0.15929100      -0.00603600
O        0.89803000       3.66816000       1.46792000      -0.09741600       0.12514900      -0.00096900
O        3.66389000       0.90297000       1.47018000       0.12951200      -0.14826800      -0.03144300
O        1.38178000       1.39202000       0.00026000       0.02075000      -0.00648900       0.01686400
O        3.18015000       3.18113000       2.92808000      -0.02827900       0.00091600       0.02418700
6
Lattice="4.565092724 0.0 0.0 0.0 4.565092724 0.0 0.0 0.0 2.928419991" Properties=species:S:1:pos:R:3:forces:R:3 energy=-58.63722756 stress="0.0064027647556595775 -4.390277519146284e-05 -0.0007280657980251561 -4.390277519146284e-05 0.006522957496896712 0.00037258688726960105 -0.0007280657980251561 0.00037258688726960105 0.006724445894498475" free_energy=-58.63722756 pbc="T T T"
Ti       2.28857000       2.28149000       1.45720000       0.01286400      -0.01622000       0.02974000
Ti       0.00640000       4.56190000       0.00454000      -0.01390600       0.02397600      -0.02373800
O        0.90204000       3.66498000       1.45535000      -0.04707000       0.02973100       0.10411200
O        3.66811000       0.88628000       1.46099000       0.07525500       0.05350000       0.03350900
O        1.39508000       1.38427000       0.00938000      -0.02905100       0.01349300      -0.08112800
O        3.17979000       3.18486000       0.00795000       0.00190800      -0.10448000      -0.06249500
6
Lattice="4.565092724 0.0 0.0 0.0 4.565092724 0.0 0.0 0.0 2.928419991" Properties=species:S:1:pos:R:3:forces:R:3 energy=-58.63583835 stress="0.005822491652226211 -8.411057698040278e-05 0.00162284854631178 -8.411057698040278e-05 0.006344231883077045 0.0010001768713862886 0.00162284854631178 0.0010001768713862886 0.005782914242858986" free_energy=-58.63583835 pbc="T T T"
Ti       2.29070000       2.29072000       1.46229000      -0.22433700      -0.09207000       0.01865000
Ti       4.56261000       0.00594000       0.00561000       0.20691800      -0.00170300      -0.02745300
O        0.90348000       3.67608000       1.45580000      -0.06539200      -0.06030200       0.04188900
O        3.67739000       0.89804000       1.45432000      -0.06585500       0.05129800       0.07002200
O        1.39061000       1.38194000       2.92387000       0.06425800       0.10560000       0.02795000
O        3.17273000       3.18304000       0.00800000       0.08440700      -0.00282300      -0.13105700
6
Lattice="4.565092724 0.0 0.0 0.0 4.565092724 0.0 0.0 0.0 2.928419991" Properties=species:S:1:pos:R:3:forces:R:3 energy=-58.63597451 stress="0.005654588815230826 -0.0004292410656052434 -0.0005074222089160572 -0.0004292410656052434 0.0055695170458450365 0.000731979224247085 -0.0005074222089160572 0.000731979224247085 0.005199851184846349" free_energy=-58.63597451 pbc="T T T"
Ti       2.27471000       2.29194000       1.47227000       0.11493400      -0.11113600      -0.01188300
Ti       0.00108000       0.00193000       0.00865000      -0.15724200       0.14374600      -0.02704300
O        0.88830000       3.67813000       1.45496000       0.18955200      -0.21045100       0.05828400
O        3.66808000       0.89296000       1.45941000      -0.05466400       0.07952600      -0.00991500
O        1.39141000       1.37906000       2.92324000       0.02400500       0.14070900       0.00281500
O        3.18342000       3.17419000       2.92454000      -0.11658600      -0.04239500      -0.01225800
6
Lattice="4.565092724 0.0 0.0 0.0 4.565092724 0.0 0.0 0.0 2.928419991" Properties=species:S:1:pos:R:3:forces:R:3 energy=-58.63558445 stress="0.005339592332665751 -0.0009298849956105913 -0.0009463188891390419 -0.0009298849956105913 0.005731090992586777 1.9642029219154612e-05 -0.0009463188891390419 1.9642029219154612e-05 0.005230147470143386" free_energy=-58.63558445 pbc="T T T"
Ti       2.27837000       2.28684000       1.45974000      -0.06488200      -0.16345900       0.01299400
Ti       4.55755000       4.55762000       0.00347000       0.03982400       0.15602900      -0.00093100
O        0.89108000       3.67547000       1.46756000       0.18711500      -0.21718400       0.03174200
O        3.67724000       0.89072000       1.47227000      -0.17485800       0.16460900      -0.02843200
O        1.38814000       1.37977000       0.00896000       0.12896800       0.16815600      -0.03864500
O        3.18095000       3.17888000       0.00357000      -0.11616600      -0.10815100       0.02327300
6
Lattice="4.565092724 0.0 0.0 0.0 4.565092724 0.0 0.0 0.0 2.928419991" Properties=species:S:1:pos:R:3:forces:R:3 energy=-58.63559648 stress="0.006745529712325709 -8.946579181041061e-05 -0.0001313026274812061 -8.946579181041061e-05 0.007666208481975622 7.21019134222034e-05 -0.0001313026274812061 7.21019134222034e-05 0.007956363758219683" free_energy=-58.63559648 pbc="T T T"
Ti       2.27381000       2.29033000       1.46184000       0.09594400      -0.18657400       0.01293400
Ti       0.00124000       4.56039000       2.92574000      -0.13626800       0.19176900       0.00002900
O        0.89871000       3.66355000       1.46470000      -0.03568000       0.02045400       0.03812500
O        3.67957000       0.90318000       1.46618000      -0.04052100      -0.10095200       0.02164600
O        1.37897000       1.37937000       0.00956000       0.19148600       0.12123600      -0.04108300
O        3.17838000       3.17772000       0.00841000      -0.07496200      -0.04593200      -0.03165100
6
Lattice="4.565092724 0.0 0.0 0.0 4.565092724 0.0 0.0 0.0 2.928419991" Properties=species:S:1:pos:R:3:forces:R:3 energy=-58.63643916 stress="0.004754507025696328 7.559091702357214e-05 -0.00043171270321909315 7.559091702357214e-05 0.004992264832828598 -0.001087089885964213 -0.00043171270321909315 -0.001087089885964213 0.004069507640639765" free_energy=-58.63643916 pbc="T T T"
Ti       2.28813000       2.28383000       1.45897000      -0.20412200      -0.08342600       0.01169800
Ti       4.55718000       4.56120000       0.00212000       0.20092700       0.02357500       0.00156000
O        0.89052000       3.66539000       1.47180000       0.03350200       0.03462200      -0.03653300
O        3.67478000       0.89237000       1.46823000      -0.05389700       0.04354100       0.00654800
O        1.39256000       1.39415000       0.00622000      -0.08393300      -0.14008400      -0.04056000
O        3.17591000       3.17431000       2.92670000       0.10752300       0.12177200       0.05728700
6
Lattice="4.565092724 0.0 0.0 0.0 4.565092724 0.0 0.0 0.0 2.928419991" Properties=species:S:1:pos:R:3:forces:R:3 energy=-58.63578449 stress="0.0059547804381493066 0.00017810146290707878 0.0004988401338679677 0.00017810146290707878 0.00599599936441664 0.0011435380944987011 0.0004988401338679677 0.0011435380944987011 0.005975577146556751" free_energy=-58.63578449 pbc="T T T"
Ti       2.27645000       2.28244000       1.46492000       0.19081000       0.10096600      -0.00634500
Ti       0.00780000       0.00738000       0.00843000      -0.18009700      -0.06528600      -0.00670500
O        0.90426000       3.67787000       1.46590000      -0.09736300      -0.05257100      -0.00368500
O        3.67117000       0.90091000       1.46908000       0.07622000      -0.10222300      -0.04439400
O        1.39359000       1.37738000       2.92078000      -0.08772900       0.02896800       0.08143700
O        3.17327000       3.17138000       0.00038000       0.09816000       0.09014500      -0.02030700
6
Lattice="4.565092724 0.0 0.0 0.0 4.565092724 0.0 0.0 0.0 2.928419991" Properties=species:S:1:pos:R:3:forces:R:3 energy=-58.63628959 stress="0.004697384734176244 0.00015506405272344367 0.0011903931035067068 0.00015506405272344367 0.0049700076112856985 -0.0011440623812652752 0.0011903931035067068 -0.0011440623812652752 0.00418465100099406" free_energy=-58.63628959 pbc="T T T"
Ti       2.28837000       2.27383000       1.46516000      -0.04425000       0.13711900      -0.00514300
Ti       0.00224000       0.00377000       0.00355000       0.05703500      -0.14637100      -0.00636400
O        0.88921000       3.67525000       1.46965000       0.06645400      -0.05948700      -0.08004700
O        3.67895000       0.90389000       1.45825000      -0.13297600      -0.01652500       0.06491900
O        1.38365000       1.39075000       2.92536000      -0.00464800      -0.06342500       0.01469400
O        3.17355000       3.16918000       2.92562000       0.05838600       0.14868800       0.01194100
6
Lattice="4.565092724 0.0 0.0 0.0 4.565092724 0.0 0.0 0.0 2.928419991" Properties=species:S:1:pos:R:3:forces:R:3 energy=-58.63721896 stress="0.005713727114198571 0.00046911182590138567 0.00013004808414690357 0.00046911182590138567 0.006272853984713445 0.0007753015390898407 0.00013004808414690357 0.0007753015390898407 0.00556986032884696" free_energy=-58.63721896 pbc="T T T"
Ti       2.28747000       2.28606000       1.45783000      -0.17993200      -0.01875200       0.00799600
Ti       4.56055000       0.00377000       2.92035000       0.20304700      -0.06831500       0.02354500
O        0.90033000       3.66178000       1.47356000      -0.08835900       0.09470600      -0.03015500
O        3.67778000       0.89567000       1.47394000      -0.00253700      -0.03833900      -0.05172000
O        1.39370000       1.38448000       0.00004000      -0.02905000      -0.06175600       0.05129500
O        3.17841000       3.17313000       0.00380000       0.09683200       0.09245600      -0.00096000
6
Lattice="4.565092724 0.0 0.0 0.0 4.565092724 0.0 0.0 0.0 2.928419991" Properties=species:S:1:pos:R:3:forces:R:3 energy=-58.63635184 stress="0.004958379679784178 0.00012773872577032677 -0.0004924925190869444 0.00012773872577032677 0.005955947600355847 0.0012767006916994204 -0.0004924925190869444 0.0012767006916994204 0.004747791161876877" free_energy=-58.63635184 pbc="T T T"
Ti       2.28314000       2.28948000       1.46545000       0.01127900      -0.23561300      -0.00648700
Ti       0.00113000       4.55631000       2.91934000      -0.09673900       0.28203500       0.01135000
O        0.88907000       3.67706000       1.45932000       0.05691900      -0.05530900       0.05345600
O        3.67100000       0.90516000       1.46992000       0.02060500      -0.02617600      -0.06818400
O        1.39128000       1.39499000       2.92637000      -0.06477100      -0.04135800       0.02881700
O        3.17108000       3.18623000       0.00175000       0.07270700       0.07642100      -0.01895200
6
Lattice="4.565092724 0.0 0.0 0.0 4.565092724 0.0 0.0 0.0 2.928419991" Properties=species:S:1:pos:R:3:forces:R:3 energy=-58.63489031 stress="0.0057267531437442875 0.00019398610363245168 0.0028553343873634436 0.00019398610363245168 0.006076377518939764 -4.974482773328956e-05 0.0028553343873634436 -4.974482773328956e-05 0.005840922828674945" free_energy=-58.63489031 pbc="T T T"
Ti       2.28323000       2.29162000       1.46145000       0.02869500      -0.25371200       0.00576100
Ti       0.00370000       4.55524000       2.92534000      -0.08814700       0.27487200       0.01063300
O        0.89740000       3.66428000       1.47327000      -0.01676700       0.05253600      -0.09787800
O        3.66986000       0.88968000       1.45913000       0.06719400       0.02780400       0.08093500
O        1.39283000       1.39385000       2.92265000      -0.04932000      -0.07183700       0.08747900
O        3.17609000       3.18700000       0.00805000       0.05834400      -0.02966300      -0.08693000
6
Lattice="4.565092724 0.0 0.0 0.0 4.565092724 0.0 0.0 0.0 2.928419991" Properties=species:S:1:pos:R:3:forces:R:3 energy=-58.63578837 stress="0.006715820128886506 -0.0005490343502583208 -0.001299706894337426 -0.0005490343502583208 0.006473892993658145 0.0014036779533563896 -0.001299706894337426 0.0014036779533563896 0.006618046888429542" free_energy=-58.63578837 pbc="T T T"
Ti       2.28361000       2.29048000       1.47247000       0.00640700      -0.16732600      -0.00036900
Ti       0.00598000       0.00141000       0.00390000      -0.09389900       0.15994000      -0.00897400
O        0.89657000       3.67986000       1.45900000       0.04332800      -0.14568900       0.11171400
O        3.67078000       0.90187000       1.47206000      -0.05897100      -0.03521900      -0.05429700
O        1.37847000       1.37944000       0.00726000       0.15927700       0.20147000      -0.02150600
O        3.17705000       3.17502000       0.00774000      -0.05614200      -0.01317500      -0.02656600
6
Lattice="4.565092724 0.0 0.0 0.0 4.565092724 0.0 0.0 0.0 2.928419991" Properties=species:S:1:pos:R:3:forces:R:3 energy=-58.63608336 stress="0.006266456437859414 -0.0002825968086926163 -6.935564940681477e-05 -0.0002825968086926163 0.005943645585868731 -0.0006088155246660306 -6.935564940681477e-05 -0.0006088155246660306 0.0054113322385586525" free_energy=-58.63608336 pbc="T T T"
Ti       2.28995000       2.28721000       1.45998000      -0.05352500      -0.25840600       0.00218300
Ti       0.00624000       4.55685000       0.00738000      -0.07107500       0.27854600      -0.01155000
O        0.88675000       3.67723000       1.46636000       0.12168600      -0.13493100      -0.03334000
O        3.66210000       0.89401000       1.46230000      -0.03700100       0.05518600       0.00837900
O        1.37796000       1.38967000       2.92561000       0.08317000       0.09961500      -0.00339300
O        3.17342000       3.18164000       2.92227000      -0.04325600      -0.04001100       0.03772300
6
Lattice="4.565092724 0.0 0.0 0.0 4.565092724 0.0 0.0 0.0 2.928419991" Properties=species:S:1:pos:R:3:forces:R:3 energy=-58.63705433 stress="0.005878028600428321 -0.0006108564981501945 0.0002813235408309361 -0.0006108564981501945 0.006810222954415489 0.0012883972798013257 0.0002813235408309361 0.0012883972798013257 0.006318916322062463" free_energy=-58.63705433 pbc="T T T"
Ti       2.27454000       2.28731000       1.46752000       0.06216800       0.01847300      -0.00802300
Ti       4.55896000       0.00357000       2.92478000      -0.03509800       0.00661300       0.01363600
O        0.88741000       3.67479000       1.46474000       0.16481500      -0.12159600       0.01735700
O        3.67535000       0.90352000       1.46966000      -0.07331100       0.04997500      -0.04515600
O        1.39375000       1.38185000       2.92560000       0.06780500       0.13036600       0.06015500
O        3.18729000       3.18183000       0.00512000      -0.18637800      -0.08383100      -0.03796900
6
Lattice="4.565092724 0.0 0.0 0.0 4.565092724 0.0 0.0 0.0 2.928419991" Properties=species:S:1:pos:R:3:forces:R:3 energy=-58.63563091 stress="0.00572652220790663 0.00041083485519301374 -0.00096043718278179 0.00041083485519301374 0.005278662720578877 -2.041597635076414e-05 -0.00096043718278179 -2.041597635076414e-05 0.004696379851206976" free_energy=-58.63563091 pbc="T T T"
Ti       2.29004000       2.27858000       1.45698000      -0.21511400       0.10557200       0.00772600
Ti       4.55917000       0.00504000       0.00757000       0.26692900      -0.19668700      -0.00986400
O        0.90108000       3.66687000       1.46197000      -0.09273100       0.05149000       0.01520600
O        3.67014000       0.88626000       1.46793000      -0.00138400       0.03696800      -0.05006800
O        1.39331000       1.38570000       2.92611000      -0.10731200      -0.09353200      -0.01213700
O        3.17511000       3.17001000       2.92123000       0.14961400       0.09618900       0.04913800
6
Lattice="4.565092724 0.0 0.0 0.0 4.565092724 0.0 0.0 0.0 2.928419991" Properties=species:S:1:pos:R:3:forces:R:3 energy=-58.63679761 stress="0.006757157643827229 -0.00021847154393329167 -0.0008038751678681341 -0.00021847154393329167 0.005960391554853476 -0.0011349560194506116 -0.0008038751678681341 -0.0011349560194506116 0.006149240896475326" free_energy=-58.63679761 pbc="T T T"
Ti       2.27854000       2.27480000       1.45715000       0.15274500       0.04348000       0.00685900
Ti       4.56483000       4.55528000       0.00211000      -0.13790000       0.05876300       0.00901100
O        0.89759000       3.67787000       1.47304000       0.02814100      -0.01547800      -0.06386400
O        3.66267000       0.89624000       1.47231000       0.08592600       0.00890700      -0.04991300
O        1.39013000       1.39534000       0.00002000      -0.05920500      -0.01077500      -0.01318600
O        3.18361000       3.18636000       2.91863000      -0.06970700      -0.08489700       0.11109300
6
Lattice="4.565092724 0.0 0.0 0.0 4.565092724 0.0 0.0 0.0 2.928419991" Properties=species:S:1:pos:R:3:forces:R:3 energy=-58.63487324 stress="0.008186151158198202 0.0007460226197803224 -0.00047404261811083344 0.0007460226197803224 0.007076810292200215 0.00031681900322983424 -0.00047404261811083344 0.00031681900322983424 0.008455466035470939" free_energy=-58.63487324 pbc="T T T"
Ti       2.28811000       2.27486000       1.47121000      -0.04967400       0.17054700      -0.02236700
Ti       0.00077000       0.00354000       2.92588000       0.08702000      -0.17527900       0.00529100
O        0.90424000       3.66377000       1.45693000      -0.19082900       0.25734000       0.01405500
O        3.66505000       0.90319000       1.46147000       0.14640800      -0.21290500      -0.03892100
O        1.37886000       1.39588000       2.92173000       0.01967900      -0.08695100       0.01427100
O        3.18608000       3.17441000       2.92031000      -0.01260400       0.04724800       0.02767000
6
Lattice="4.565092724 0.0 0.0 0.0 4.565092724 0.0 0.0 0.0 2.928419991" Properties=species:S:1:pos:R:3:forces:R:3 energy=-58.63691537 stress="0.005984171704623092 0.0001895733566804522 -0.001745281989325106 0.0001895733566804522 0.005148364976066938 0.0002585420325214622 -0.001745281989325106 0.0002585420325214622 0.005190401540029761" free_energy=-58.63691537 pbc="T T T"
Ti       2.27817000       2.28723000       1.46498000      -0.07541300      -0.09630100      -0.00262200
Ti       4.55590000       4.56195000       2.91855000       0.07702600       0.06991000       0.01218600
O        0.90137000       3.67631000       1.45583000      -0.06070100      -0.03469200       0.07668900
O        3.66149000       0.88531000       1.46561000       0.06805000       0.06308000      -0.04693500
O        1.39395000       1.38735000       0.00538000      -0.12723700      -0.02184800      -0.06646000
O        3.17388000       3.17812000       2.92642000       0.11827600       0.01985000       0.02714200
6
Lattice="4.565092724 0.0 0.0 0.0 4.565092724 0.0 0.0 0.0 2.928419991" Properties=species:S:1:pos:R:3:forces:R:3 energy=-58.63582568 stress="0.004417384393279994 0.0005868641370702992 -0.00011113006998635142 0.0005868641370702992 0.004755755327521504 -0.0002872529745005252 -0.00011113006998635142 -0.0002872529745005252 0.003469761028733643" free_energy=-58.63582568 pbc="T T T"
Ti       2.28635000       2.28566000       1.46466000       0.01614000      -0.08080700      -0.01364500
Ti       0.00632000       0.00053000       0.00121000      -0.07581800       0.10233200      -0.00956000
O        0.88951000       3.67340000       1.45802000       0.00022100      -0.00168600      -0.00502900
O        3.66790000       0.90053000       1.45617000       0.08030900      -0.09795100       0.01189200
O        1.39522000       1.39222000       2.92187000      -0.21979800      -0.17402200      -0.00266300
O        3.16993000       3.17009000       2.92042000       0.19894500       0.25213400       0.01900400
6
Lattice="4.565092724 0.0 0.0 0.0 4.565092724 0.0 0.0 0.0 2.928419991" Properties=species:S:1:pos:R:3:forces:R:3 energy=-58.63442509 stress="0.005261011732770879 -0.00033360242126933426 0.0018585841044872651 -0.00033360242126933426 0.0051659348242563 0.002035749341025461 0.0018585841044872651 0.002035749341025461 0.004761422617807805" free_energy=-58.63442509 pbc="T T T"
Ti       2.29037000       2.29051000       1.45435000      -0.21501200      -0.25517600       0.02838000
Ti       4.56056000       4.55747000       2.92634000       0.15015000       0.20855100      -0.01577000
O        0.89665000       3.67537000       1.45567000       0.02583900      -0.05517700       0.04636200
O        3.67026000       0.89024000       1.45656000      -0.03636900       0.11320800       0.03408700
O        1.39068000       1.39476000       2.91965000      -0.01435000      -0.00767300       0.07242700
O        3.17356000       3.18643000       0.00945000       0.08974100      -0.00373200      -0.16548600
6
Lattice="4.565092724 0.0 0.0 0.0 4.565092724 0.0 0.0 0.0 2.928419991" Properties=species:S:1:pos:R:3:forces:R:3 energy=-58.6344106 stress="0.0063801080775326225 0.0010086778068157415 0.001568803318790757 0.0010086778068157415 0.006252188347997644 -0.0018226642194678069 0.001568803318790757 -0.0018226642194678069 0.006436007033264032" free_energy=-58.6344106 pbc="T T T"
Ti       2.28587000       2.28766000       1.45917000      -0.06775400      -0.07327600      -0.00649700
Ti       4.56384000       4.56483000       2.92357000       0.06278200       0.05173400       0.00468100
O        0.90100000       3.66178000       1.47365000      -0.13690700       0.22920300      -0.13895500
O        3.67088000       0.90284000       1.45556000       0.16437000      -0.21213200       0.07832200
O        1.39430000       1.39629000       2.92227000      -0.13109600      -0.19063600       0.02239600
O        3.18562000       3.17081000       2.92091000       0.10860600       0.19510800       0.04005300
6
Lattice="4.565092724 0.0 0.0 0.0 4.565092724 0.0 0.0 0.0 2.928419991" Properties=species:S:1:pos:R:3:forces:R:3 energy=-58.63690108 stress="0.006175392819712776 0.00016547488994541696 0.0019537359111113555 0.00016547488994541696 0.006324296502928975 4.67863524076209e-05 0.0019537359111113555 4.67863524076209e-05 0.0061503019530267265" free_energy=-58.63690108 pbc="T T T"
Ti       2.28024000       2.27683000       1.46533000       0.05682800       0.01745600      -0.00250900
Ti       0.00062000       4.55979000       2.92329000      -0.05666100       0.00782400       0.01093100
O        0.90240000       3.67342000       1.47021000      -0.09372500      -0.05523900      -0.06035900
O        3.66344000       0.88782000       1.46082000       0.09422600       0.03260200       0.05748000
O        1.39428000       1.37759000       2.92559000      -0.09514800       0.04463600       0.06070300
O        3.16878000       3.18151000       0.00732000       0.09447900      -0.04727900      -0.06624700
6
Lattice="4.565092724 0.0 0.0 0.0 4.565092724 0.0 0.0 0.0 2.928419991" Properties=species:S:1:pos:R:3:forces:R:3 energy=-58.63527196 stress="0.007633016136444175 -0.0006493853339842718 -0.0007057211953544941 -0.0006493853339842718 0.00730852631849863 -0.0003119069355477641 -0.0007057211953544941 -0.0003119069355477641 0.008220835224410734" free_energy=-58.63527196 pbc="T T T"
Ti       2.27996000       2.28749000       1.46512000      -0.13259900      -0.22974600      -0.00634800
Ti       4.55623000       4.55587000       2.92743000       0.09088200       0.19761400      -0.00987900
O        0.89861000       3.66862000       1.45429000       0.01675700      -0.04069100       0.02957700
O        3.67164000       0.89690000       1.45616000      -0.04427200      -0.03653000       0.00537700
O        1.37852000       1.37790000       2.92478000       0.22096400       0.20871700      -0.03919500
O        3.18609000       3.17495000       2.92030000      -0.15173200      -0.09936500       0.02046800
6
Lattice="4.565092724 0.0 0.0 0.0 4.565092724 0.0 0.0 0.0 2.928419991" Properties=species:S:1:pos:R:3:forces:R:3 energy=-58.63831181 stress="0.006325345076462123 -0.00010638028154155425 -0.0006920085998049285 -0.00010638028154155425 0.006965449286376205 0.0001535223999693505 -0.0006920085998049285 0.0001535223999693505 0.006940551906473057" free_energy=-58.63831181 pbc="T T T"
Ti       2.27977000       2.28100000       1.46316000      -0.01648500      -0.09129200      -0.00094600
Ti       4.55987000       4.55550000       2.91843000       0.01229400       0.10691900       0.02299000
O        0.89968000       3.67016000       1.46768000      -0.03676000      -0.02038700       0.00684900
O        3.67012000       0.89591000       1.47249000       0.04853200      -0.00052700      -0.04937600
O        1.39271000       1.38077000       0.00474000       0.01356100       0.08176500      -0.00726900
O        3.17768000       3.18408000       0.00190000      -0.02114200      -0.07647700       0.02775200
6
Lattice="4.565092724 0.0 0.0 0.0 4.565092724 0.0 0.0 0.0 2.928419991" Properties=species:S:1:pos:R:3:forces:R:3 energy=-58.63524544 stress="0.005377097561003182 0.0003967103200411399 -0.0019500721452544614 0.0003967103200411399 0.005164205926228431 -0.0014527674226314613 -0.0019500721452544614 -0.0014527674226314613 0.004641211152043295" free_energy=-58.63524544 pbc="T T T"
Ti       2.27591000       2.28591000       1.47215000       0.21432000       0.05543900      -0.01084500
Ti       0.00689000       0.00639000       2.92504000      -0.22214800       0.01427500       0.00843100
O        0.88902000       3.67363000       1.46311000       0.00735900       0.03176900       0.01742700